VARIABLES = X, Y
ZONE N = 121, E = 100, F = FEPOINT, ET = QUADRILATERAL
	0	0
	0	0.0381966
	0	0.0824429
	0	0.138197
	0	0.209789
	0	0.3
	0	0.409789
	0	0.538197
	0	0.682443
	0	0.838197
	0	1
	0.161803	0
	0.184955	0.0576827
	0.174858	0.114504
	0.156832	0.172251
	0.137844	0.242389
	0.116064	0.315947
	0.0965337	0.408275
	0.0788719	0.519718
	0.0649816	0.654525
	0.0587036	0.818398
	0.0381966	1
	0.317557	0
	0.347114	0.0649564
	0.335676	0.13752
	0.304611	0.19231
	0.270028	0.273319
	0.233133	0.339337
	0.195076	0.42832
	0.159147	0.537865
	0.134027	0.657161
	0.115176	0.827817
	0.0824429	1
	0.461803	0
	0.483958	0.0778201
	0.461317	0.168857
	0.425534	0.227866
	0.380092	0.32007
	0.330545	0.384569
	0.281064	0.470743
	0.233654	0.579429
	0.196917	0.687175
	0.175477	0.848522
	0.138197	1
	0.590211	0
	0.592212	0.0945127
	0.568594	0.208747
	0.52776	0.273622
	0.474179	0.375004
	0.420404	0.439006
	0.364393	0.516632
	0.308991	0.623441
	0.267959	0.714373
	0.242916	0.866891
	0.209789	1
	0.7	0
	0.683264	0.111436
	0.656445	0.247007
	0.614605	0.322904
	0.557738	0.429173
	0.5	0.5
	0.442262	0.570827
	0.385395	0.677096
	0.343555	0.752993
	0.316736	0.888564
	0.3	1
	0.790211	0
	0.757084	0.133109
	0.732041	0.285627
	0.691009	0.376559
	0.635607	0.483368
	0.579596	0.560994
	0.525821	0.624996
	0.47224	0.726378
	0.431406	0.791253
	0.407788	0.905487
	0.409789	1
	0.861803	0
	0.824523	0.151478
	0.803083	0.312825
	0.766346	0.420571
	0.718936	0.529257
	0.669455	0.615431
	0.619908	0.67993
	0.574466	0.772134
	0.538683	0.831143
	0.516042	0.92218
	0.538197	1
	0.917557	0
	0.884824	0.172183
	0.865973	0.342839
	0.840853	0.462135
	0.804924	0.57168
	0.766867	0.660663
	0.729972	0.726681
	0.695389	0.80769
	0.664324	0.86248
	0.652886	0.935044
	0.682443	1
	0.961803	0
	0.941296	0.181602
	0.935018	0.345475
	0.921128	0.480282
	0.903466	0.591725
	0.883936	0.684053
	0.862156	0.757611
	0.843168	0.827749
	0.825142	0.885496
	0.815045	0.942317
	0.838197	1
	1	0
	1	0.161803
	1	0.317557
	1	0.461803
	1	0.590211
	1	0.7
	1	0.790211
	1	0.861803
	1	0.917557
	1	0.961803
	1	1
	1	12	13	2
	2	13	14	3
	3	14	15	4
	4	15	16	5
	5	16	17	6
	6	17	18	7
	7	18	19	8
	8	19	20	9
	9	20	21	10
	10	21	22	11
	12	23	24	13
	13	24	25	14
	14	25	26	15
	15	26	27	16
	16	27	28	17
	17	28	29	18
	18	29	30	19
	19	30	31	20
	20	31	32	21
	21	32	33	22
	23	34	35	24
	24	35	36	25
	25	36	37	26
	26	37	38	27
	27	38	39	28
	28	39	40	29
	29	40	41	30
	30	41	42	31
	31	42	43	32
	32	43	44	33
	34	45	46	35
	35	46	47	36
	36	47	48	37
	37	48	49	38
	38	49	50	39
	39	50	51	40
	40	51	52	41
	41	52	53	42
	42	53	54	43
	43	54	55	44
	45	56	57	46
	46	57	58	47
	47	58	59	48
	48	59	60	49
	49	60	61	50
	50	61	62	51
	51	62	63	52
	52	63	64	53
	53	64	65	54
	54	65	66	55
	56	67	68	57
	57	68	69	58
	58	69	70	59
	59	70	71	60
	60	71	72	61
	61	72	73	62
	62	73	74	63
	63	74	75	64
	64	75	76	65
	65	76	77	66
	67	78	79	68
	68	79	80	69
	69	80	81	70
	70	81	82	71
	71	82	83	72
	72	83	84	73
	73	84	85	74
	74	85	86	75
	75	86	87	76
	76	87	88	77
	78	89	90	79
	79	90	91	80
	80	91	92	81
	81	92	93	82
	82	93	94	83
	83	94	95	84
	84	95	96	85
	85	96	97	86
	86	97	98	87
	87	98	99	88
	89	100	101	90
	90	101	102	91
	91	102	103	92
	92	103	104	93
	93	104	105	94
	94	105	106	95
	95	106	107	96
	96	107	108	97
	97	108	109	98
	98	109	110	99
	100	111	112	101
	101	112	113	102
	102	113	114	103
	103	114	115	104
	104	115	116	105
	105	116	117	106
	106	117	118	107
	107	118	119	108
	108	119	120	109
	109	120	121	110
