VARIABLES = X, Y
ZONE N = 121, E = 100, F = FEPOINT, ET = QUADRILATERAL
	0	0
	0	0.099
	0	0.198
	0	0.297
	0	0.396
	0	0.495
	0	0.594
	0	0.693
	0	0.792
	0	0.891
	0	0.99
	0.099	0
	0.0989983	0.099017
	0.0985941	0.198171
	0.0988432	0.296833
	0.0986528	0.396289
	0.0989916	0.495132
	0.0999629	0.594044
	0.0989984	0.693065
	0.100211	0.792445
	0.0994826	0.891334
	0.099	0.99
	0.198	0
	0.197903	0.0987551
	0.198167	0.19762
	0.197955	0.297148
	0.198023	0.395453
	0.197823	0.494587
	0.197933	0.59392
	0.197338	0.693036
	0.197404	0.791568
	0.19682	0.890942
	0.198	0.99
	0.297	0
	0.297017	0.0990371
	0.296812	0.197903
	0.296986	0.297106
	0.297205	0.395931
	0.297048	0.495216
	0.297283	0.593958
	0.297029	0.693145
	0.297568	0.791741
	0.297051	0.891209
	0.297	0.99
	0.396	0
	0.395891	0.0986454
	0.396003	0.197857
	0.395982	0.296672
	0.395969	0.395888
	0.395873	0.494999
	0.395847	0.593785
	0.395586	0.693161
	0.39579	0.791852
	0.395102	0.8909
	0.396	0.99
	0.495	0
	0.495028	0.0990913
	0.494528	0.197984
	0.49499	0.297018
	0.494743	0.396085
	0.494999	0.495011
	0.495258	0.594095
	0.495044	0.693064
	0.495357	0.791961
	0.495045	0.891144
	0.495	0.99
	0.594	0
	0.593855	0.0986292
	0.593973	0.197774
	0.594083	0.296698
	0.594029	0.395921
	0.594014	0.494624
	0.593983	0.593975
	0.593813	0.693045
	0.593882	0.791991
	0.59356	0.890988
	0.594	0.99
	0.693	0
	0.693035	0.0991592
	0.692421	0.197836
	0.692972	0.297078
	0.692383	0.395989
	0.692994	0.495008
	0.692716	0.594067
	0.692996	0.693003
	0.693217	0.792144
	0.693033	0.891074
	0.693	0.99
	0.792	0
	0.791899	0.0988007
	0.791937	0.197376
	0.792077	0.296935
	0.792104	0.395856
	0.792098	0.494822
	0.792034	0.59396
	0.791982	0.692721
	0.792015	0.79199
	0.791863	0.890981
	0.792	0.99
	0.891	0
	0.891055	0.0994534
	0.890416	0.197291
	0.890914	0.297194
	0.890383	0.395519
	0.89096	0.495105
	0.890419	0.593748
	0.89099	0.693021
	0.890722	0.791953
	0.890991	0.891012
	0.891	0.99
	0.99	0
	0.99	0.099
	0.99	0.198
	0.99	0.297
	0.99	0.396
	0.99	0.495
	0.99	0.594
	0.99	0.693
	0.99	0.792
	0.99	0.891
	0.99	0.99
	1	12	13	2
	2	13	14	3
	3	14	15	4
	4	15	16	5
	5	16	17	6
	6	17	18	7
	7	18	19	8
	8	19	20	9
	9	20	21	10
	10	21	22	11
	12	23	24	13
	13	24	25	14
	14	25	26	15
	15	26	27	16
	16	27	28	17
	17	28	29	18
	18	29	30	19
	19	30	31	20
	20	31	32	21
	21	32	33	22
	23	34	35	24
	24	35	36	25
	25	36	37	26
	26	37	38	27
	27	38	39	28
	28	39	40	29
	29	40	41	30
	30	41	42	31
	31	42	43	32
	32	43	44	33
	34	45	46	35
	35	46	47	36
	36	47	48	37
	37	48	49	38
	38	49	50	39
	39	50	51	40
	40	51	52	41
	41	52	53	42
	42	53	54	43
	43	54	55	44
	45	56	57	46
	46	57	58	47
	47	58	59	48
	48	59	60	49
	49	60	61	50
	50	61	62	51
	51	62	63	52
	52	63	64	53
	53	64	65	54
	54	65	66	55
	56	67	68	57
	57	68	69	58
	58	69	70	59
	59	70	71	60
	60	71	72	61
	61	72	73	62
	62	73	74	63
	63	74	75	64
	64	75	76	65
	65	76	77	66
	67	78	79	68
	68	79	80	69
	69	80	81	70
	70	81	82	71
	71	82	83	72
	72	83	84	73
	73	84	85	74
	74	85	86	75
	75	86	87	76
	76	87	88	77
	78	89	90	79
	79	90	91	80
	80	91	92	81
	81	92	93	82
	82	93	94	83
	83	94	95	84
	84	95	96	85
	85	96	97	86
	86	97	98	87
	87	98	99	88
	89	100	101	90
	90	101	102	91
	91	102	103	92
	92	103	104	93
	93	104	105	94
	94	105	106	95
	95	106	107	96
	96	107	108	97
	97	108	109	98
	98	109	110	99
	100	111	112	101
	101	112	113	102
	102	113	114	103
	103	114	115	104
	104	115	116	105
	105	116	117	106
	106	117	118	107
	107	118	119	108
	108	119	120	109
	109	120	121	110
