VARIABLES = X, Y
ZONE NODES = 8, FACES = 8, ELEMENTS = 1
DATAPACKING = BLOCK
ZONETYPE = FEPOLYGON
TotalNumFaceNodes = 16
NumConnectedBoundaryFaces = 0
TotalNumBoundaryConnections = 0
0
1
2
2
2
1
0
0
0
-1
0
1
2
2
2
1
1	2
2	3
3	4
4	5
5	6
6	7
7	8
8	1
1	1	1	1	1	1	1	1
0	0	0	0	0	0	0	0